# vtk DataFile Version 2.0
testmesh, Created by Gmsh 4.11.1 
ASCII
DATASET UNSTRUCTURED_GRID
POINTS 65 double
0 0 0
0 5 0
5 5 0
5 0 0
0 0 5
5 0 5
5 5 5
0 5 5
3.5 2.5 5
0 2.5 0
2.5 5 0
5 2.5 0
2.5 0 0
2.5 0 5
5 2.5 5
2.5 5 5
0 2.5 5
5 0 2.5
0 0 2.5
5 5 2.5
0 5 2.5
3.207106781186547 3.207106781186548 5
2.499999999999999 3.5 5
1.792893218813452 3.207106781186547 5
1.5 2.5 5
1.792893218813453 1.792893218813452 5
2.500000000000002 1.5 5
3.207106781186548 1.792893218813453 5
2.5 2.5 0
3.75 3.75 0
1.25 1.25 0
1.25 3.75 0
3.75 1.25 0
3.205372174505606 0.9696699141100895 5
1.794627825494394 4.03033008588991 5
0.9696699141100902 1.794627825494394 5
4.03033008588991 3.205372174505605 5
3.99046817359701 1.827989217904858 5
1.00953182640299 3.172010782095142 5
3.172010782095142 3.99046817359701 5
1.827989217904859 1.00953182640299 5
2.5 2.5 5.000000000000001
2.707106781186548 2 5.000000000000001
2 2.707106781186547 5.000000000000001
3 2.707106781186548 5.000000000000001
2.5 0 2.5
1.25 0 1.25
1.25 0 3.75
3.75 0 3.75
3.75 0 1.25
5 2.5 2.5
5 3.75 3.75
5 3.75 1.25
5 1.25 1.25
5 1.25 3.75
2.5 5 2.5
3.75 5 1.25
3.75 5 3.75
1.25 5 1.25
1.25 5 3.75
0 2.5 2.5
0 3.75 1.25
0 3.75 3.75
0 1.25 1.25
0 1.25 3.75

CELLS 126 504
3 9 30 0
3 0 30 12
3 1 31 9
3 10 31 1
3 2 29 10
3 11 29 2
3 3 32 11
3 12 32 3
3 28 30 9
3 9 31 28
3 10 29 28
3 28 31 10
3 28 29 11
3 11 32 28
3 12 30 28
3 28 32 12
3 22 39 34
3 36 39 21
3 8 37 36
3 26 40 33
3 24 38 35
3 35 40 25
3 34 38 23
3 33 37 27
3 4 40 35
3 6 39 36
3 7 38 34
3 5 37 33
3 26 33 27
3 24 35 25
3 22 34 23
3 8 36 21
3 27 37 8
3 25 40 26
3 21 39 22
3 23 38 24
3 36 37 14
3 34 39 15
3 33 40 13
3 35 38 16
3 13 40 4
3 4 35 16
3 5 33 13
3 14 37 5
3 6 36 14
3 15 39 6
3 7 34 15
3 16 38 7
3 25 42 41
3 41 43 25
3 22 43 41
3 41 44 22
3 8 44 42
3 25 43 24
3 8 42 27
3 22 44 21
3 23 43 22
3 26 42 25
3 42 44 41
3 21 44 8
3 27 42 26
3 24 43 23
3 12 46 0
3 0 46 18
3 3 49 12
3 17 49 3
3 4 47 13
3 18 47 4
3 13 48 5
3 5 48 17
3 45 46 12
3 12 49 45
3 13 47 45
3 45 48 13
3 17 48 45
3 45 49 17
3 18 46 45
3 45 47 18
3 2 52 11
3 19 52 2
3 11 53 3
3 3 53 17
3 5 54 14
3 17 54 5
3 14 51 6
3 6 51 19
3 11 52 50
3 50 53 11
3 50 51 14
3 14 54 50
3 17 53 50
3 50 54 17
3 19 51 50
3 50 52 19
3 1 58 10
3 20 58 1
3 10 56 2
3 2 56 19
3 6 57 15
3 19 57 6
3 15 59 7
3 7 59 20
3 55 56 10
3 10 58 55
3 15 57 55
3 55 59 15
3 19 56 55
3 55 57 19
3 55 58 20
3 20 59 55
3 0 63 9
3 18 63 0
3 9 61 1
3 1 61 20
3 16 64 4
3 4 64 18
3 7 62 16
3 20 62 7
3 60 61 9
3 9 63 60
3 16 62 60
3 60 64 16
3 60 63 18
3 18 64 60
3 20 61 60
3 60 62 20

CELL_TYPES 126
5
5
5
5
5
5
5
5
5
5
5
5
5
5
5
5
5
5
5
5
5
5
5
5
5
5
5
5
5
5
5
5
5
5
5
5
5
5
5
5
5
5
5
5
5
5
5
5
5
5
5
5
5
5
5
5
5
5
5
5
5
5
5
5
5
5
5
5
5
5
5
5
5
5
5
5
5
5
5
5
5
5
5
5
5
5
5
5
5
5
5
5
5
5
5
5
5
5
5
5
5
5
5
5
5
5
5
5
5
5
5
5
5
5
5
5
5
5
5
5
5
5
5
5
5
5

CELL_DATA 126
SCALARS CellEntityIds int 1
LOOKUP_TABLE default
1
1
1
1
1
1
1
1
1
1
1
1
1
1
1
1
1
1
1
1
1
1
1
1
1
1
1
1
1
1
1
1
1
1
1
1
1
1
1
1
1
1
1
1
1
1
1
1
2
2
2
2
2
2
2
2
2
2
2
2
2
2
1
1
1
1
1
1
1
1
1
1
1
1
1
1
1
1
1
1
1
1
1
1
1
1
1
1
1
1
1
1
1
1
1
1
1
1
1
1
1
1
1
1
1
1
1
1
1
1
1
1
1
1
1
1
1
1
1
1
1
1
1
1
1
1
